srun -n 64 -c 1 --unbuffered --hint=nomultithread ../../../../q-e/PW/src/pw.x -i pw.in -ndiag 64 -npool 1

     Program PWSCF v.6.1 starts on  2Oct2017 at  9:33:45 

     This program is part of the open-source Quantum ESPRESSO suite
     for quantum simulation of materials; please cite
         "P. Giannozzi et al., J. Phys.:Condens. Matter 21 395502 (2009);
          URL http://www.quantum-espresso.org", 
     in publications or presentations arising from this work. More details at
     http://www.quantum-espresso.org/quote

     Parallel version (MPI & OpenMP), running on      64 processor cores
     Number of MPI processes:                64
     Threads/MPI process:                     1
     K-points division:     npool     =       4
     R & G space division:  proc/nbgrp/npool/nimage =      16
     Reading input from pw.in
     Message from routine read_cards :
     DEPRECATED: no units specified in CELL_PARAMETERS card
SIRIUS 4.10, git hash: acd4df71aa36c8acb72960be4f4af682801521ec

     Current dimensions of program PWSCF are:
     Max number of different atomic species (ntypx) = 10
     Max number of k-points (npk) =  40000
     Max angular momentum in pseudopotentials (lmaxx) =  3

     Subspace diagonalization in iterative solution of the eigenvalue problem:
     one sub-group per band group will be used
     custom distributed-memory algorithm (size of sub-group:  4*  4 procs)


   Info: using nr1, nr2, nr3 values from input

     Parallelization info
     --------------------
     sticks:   dense  smooth     PW     G-vecs:    dense   smooth      PW
     Min         839     336     91                73017    18494    2615
     Max         840     337     92                73020    18497    2618
     Sum       13429    5377   1457              1168287   295907   41851



     bravais-lattice index     =            0
     lattice parameter (alat)  =       1.0000  a.u.
     unit-cell volume          =    8646.7719 (a.u.)^3
     number of atoms/cell      =           64
     number of atomic types    =            2
     number of electrons       =       266.00
     number of Kohn-Sham states=          160
     kinetic-energy cutoff     =      40.0000  Ry
     charge density cutoff     =     400.0000  Ry
     convergence threshold     =      1.0E-11
     mixing beta               =       0.7000
     number of iterations used =            8  plain     mixing
     Exchange-correlation      = SLA  PZ   NOGX NOGC ( 1  1  0  0 0 0)

     celldm(1)=   1.000000  celldm(2)=   0.000000  celldm(3)=   0.000000
     celldm(4)=   0.000000  celldm(5)=   0.000000  celldm(6)=   0.000000

     crystal axes: (cart. coord. in units of alat)
               a(1) = (  20.525071   0.000000   0.000000 )  
               a(2) = (   0.000000  20.525071   0.000000 )  
               a(3) = (   0.000000   0.000000  20.525071 )  

     reciprocal axes: (cart. coord. in units 2 pi/alat)
               b(1) = (  0.048721  0.000000  0.000000 )  
               b(2) = (  0.000000  0.048721  0.000000 )  
               b(3) = (  0.000000  0.000000  0.048721 )  


     PseudoPot. # 1 for Ge read from file:
     ./ge_lda_v1.4.uspp.F.UPF
     MD5 check sum: bf9d52b59cc8a669818bb2b52e0c2ba0
     Pseudo is Ultrasoft + core correction, Zval = 14.0
     Generated by new atomic code, or converted to UPF format
     Using radial grid of  873 points,  6 beta functions with: 
                l(1) =   0
                l(2) =   0
                l(3) =   1
                l(4) =   1
                l(5) =   2
                l(6) =   2
     Q(r) pseudized with  8 coefficients,  rinner =    1.400   1.400   1.400
                                                       1.400   1.400

     PseudoPot. # 2 for Si read from file:
     ./si_lda_v1.uspp.F.UPF
     MD5 check sum: b5ade7b37ee992b02096e360e546dc2d
     Pseudo is Ultrasoft + core correction, Zval =  4.0
     Generated by new atomic code, or converted to UPF format
     Using radial grid of  899 points,  6 beta functions with: 
                l(1) =   0
                l(2) =   0
                l(3) =   1
                l(4) =   1
                l(5) =   2
                l(6) =   2
     Q(r) pseudized with  8 coefficients,  rinner =    0.900   0.900   0.900
                                                       0.900   0.900

     atomic species   valence    mass     pseudopotential
        Ge            14.00    72.61000     Ge( 1.00)
        Si             4.00    28.08550     Si( 1.00)

     24 Sym. Ops. (no inversion) found



   Cartesian axes

     site n.     atom                  positions (a.u.)
         1           Ge  tau(   1) = (   0.0000000   0.0000000   0.0000000  )
         2           Si  tau(   2) = (   0.0000000   0.0000000  10.2625355  )
         3           Si  tau(   3) = (   0.0000000  10.2625355   0.0000000  )
         4           Si  tau(   4) = (   0.0000000  10.2625355  10.2625355  )
         5           Si  tau(   5) = (  10.2625355   0.0000000   0.0000000  )
         6           Si  tau(   6) = (  10.2625355   0.0000000  10.2625355  )
         7           Si  tau(   7) = (  10.2625355  10.2625355   0.0000000  )
         8           Si  tau(   8) = (  10.2625355  10.2625355  10.2625355  )
         9           Si  tau(   9) = (   0.0000000   5.1312678   5.1312678  )
        10           Si  tau(  10) = (   0.0000000   5.1312678  15.3938033  )
        11           Si  tau(  11) = (   0.0000000  15.3938033   5.1312678  )
        12           Si  tau(  12) = (   0.0000000  15.3938033  15.3938033  )
        13           Si  tau(  13) = (  10.2625355   5.1312678   5.1312678  )
        14           Si  tau(  14) = (  10.2625355   5.1312678  15.3938033  )
        15           Si  tau(  15) = (  10.2625355  15.3938033   5.1312678  )
        16           Si  tau(  16) = (  10.2625355  15.3938033  15.3938033  )
        17           Si  tau(  17) = (   5.1312678   0.0000000   5.1312678  )
        18           Si  tau(  18) = (   5.1312678   0.0000000  15.3938033  )
        19           Si  tau(  19) = (   5.1312678  10.2625355   5.1312678  )
        20           Si  tau(  20) = (   5.1312678  10.2625355  15.3938033  )
        21           Si  tau(  21) = (  15.3938033   0.0000000   5.1312678  )
        22           Si  tau(  22) = (  15.3938033   0.0000000  15.3938033  )
        23           Si  tau(  23) = (  15.3938033  10.2625355   5.1312678  )
        24           Si  tau(  24) = (  15.3938033  10.2625355  15.3938033  )
        25           Si  tau(  25) = (   5.1312678   5.1312678   0.0000000  )
        26           Si  tau(  26) = (   5.1312678   5.1312678  10.2625355  )
        27           Si  tau(  27) = (   5.1312678  15.3938033   0.0000000  )
        28           Si  tau(  28) = (   5.1312678  15.3938033  10.2625355  )
        29           Si  tau(  29) = (  15.3938033   5.1312678   0.0000000  )
        30           Si  tau(  30) = (  15.3938033   5.1312678  10.2625355  )
        31           Si  tau(  31) = (  15.3938033  15.3938033   0.0000000  )
        32           Si  tau(  32) = (  15.3938033  15.3938033  10.2625355  )
        33           Si  tau(  33) = (   7.6969016   7.6969016   2.5656339  )
        34           Si  tau(  34) = (   7.6969016   7.6969016  12.8281694  )
        35           Si  tau(  35) = (   7.6969016  17.9594371   2.5656339  )
        36           Si  tau(  36) = (   7.6969016  17.9594371  12.8281694  )
        37           Si  tau(  37) = (  17.9594371   7.6969016   2.5656339  )
        38           Si  tau(  38) = (  17.9594371   7.6969016  12.8281694  )
        39           Si  tau(  39) = (  17.9594371  17.9594371   2.5656339  )
        40           Si  tau(  40) = (  17.9594371  17.9594371  12.8281694  )
        41           Si  tau(  41) = (   7.6969016   2.5656339   7.6969016  )
        42           Si  tau(  42) = (   7.6969016   2.5656339  17.9594371  )
        43           Si  tau(  43) = (   7.6969016  12.8281694   7.6969016  )
        44           Si  tau(  44) = (   7.6969016  12.8281694  17.9594371  )
        45           Si  tau(  45) = (  17.9594371   2.5656339   7.6969016  )
        46           Si  tau(  46) = (  17.9594371   2.5656339  17.9594371  )
        47           Si  tau(  47) = (  17.9594371  12.8281694   7.6969016  )
        48           Si  tau(  48) = (  17.9594371  12.8281694  17.9594371  )
        49           Si  tau(  49) = (   2.5656339   7.6969016   7.6969016  )
        50           Si  tau(  50) = (   2.5656339   7.6969016  17.9594371  )
        51           Si  tau(  51) = (   2.5656339  17.9594371   7.6969016  )
        52           Si  tau(  52) = (   2.5656339  17.9594371  17.9594371  )
        53           Si  tau(  53) = (  12.8281694   7.6969016   7.6969016  )
        54           Si  tau(  54) = (  12.8281694   7.6969016  17.9594371  )
        55           Si  tau(  55) = (  12.8281694  17.9594371   7.6969016  )
        56           Si  tau(  56) = (  12.8281694  17.9594371  17.9594371  )
        57           Si  tau(  57) = (   2.5656339   2.5656339   2.5656339  )
        58           Si  tau(  58) = (   2.5656339   2.5656339  12.8281694  )
        59           Si  tau(  59) = (   2.5656339  12.8281694   2.5656339  )
        60           Si  tau(  60) = (   2.5656339  12.8281694  12.8281694  )
        61           Si  tau(  61) = (  12.8281694   2.5656339   2.5656339  )
        62           Si  tau(  62) = (  12.8281694   2.5656339  12.8281694  )
        63           Si  tau(  63) = (  12.8281694  12.8281694   2.5656339  )
        64           Si  tau(  64) = (  12.8281694  12.8281694  12.8281694  )

     number of k points=     4  gaussian smearing, width (Ry)=  0.0100
                       cart. coord. in units 2pi/alat
        k(    1) = (   0.0000000   0.0000000   0.0000000), wk =   0.2500000
        k(    2) = (   0.0000000   0.0000000  -0.0243605), wk =   0.7500000
        k(    3) = (   0.0000000  -0.0243605  -0.0243605), wk =   0.7500000
        k(    4) = (  -0.0243605  -0.0243605  -0.0243605), wk =   0.2500000

     Dense  grid:  1168287 G-vectors     FFT dimensions: ( 135, 135, 135)

     Smooth grid:   295907 G-vectors     FFT dimensions: (  90,  90,  90)

     Estimated max dynamical RAM per process >     367.59 MB

     Estimated total dynamical RAM >      22.97 GB

     Self-consistent Calculation

     iteration #  1     ecut=    40.00 Ry     beta=0.70
     ethr =  1.00E-02
Average number of iterations:     3.250000
     Ef =   0.4391091841662511

     total energy              =    -819.63132272 Ry
     Harris-Foulkes estimate   =       0.00000000 Ry
     estimated scf accuracy    <       1.82898948 Ry

     iteration #  2     ecut=    40.00 Ry     beta=0.70
     ethr =  6.88E-04
Average number of iterations:     2.000000
     Ef =   0.4626923805995365

     total energy              =    -819.75643186 Ry
     Harris-Foulkes estimate   =       0.00000000 Ry
     estimated scf accuracy    <       0.06750536 Ry

     iteration #  3     ecut=    40.00 Ry     beta=0.70
     ethr =  2.54E-05
Average number of iterations:    10.500000
     Ef =   0.4648651453105448

     total energy              =    -819.77500195 Ry
     Harris-Foulkes estimate   =       0.00000000 Ry
     estimated scf accuracy    <       0.00869116 Ry

     iteration #  4     ecut=    40.00 Ry     beta=0.70
     ethr =  3.27E-06
Average number of iterations:     9.500000
     Ef =   0.4641284191074685

     total energy              =    -819.77266283 Ry
     Harris-Foulkes estimate   =       0.00000000 Ry
     estimated scf accuracy    <       0.04952016 Ry

     iteration #  5     ecut=    40.00 Ry     beta=0.70
     ethr =  3.27E-06
Average number of iterations:     6.250000
     Ef =   0.4638898716266738

     total energy              =    -819.77954171 Ry
     Harris-Foulkes estimate   =       0.00000000 Ry
     estimated scf accuracy    <       0.00186916 Ry

     iteration #  6     ecut=    40.00 Ry     beta=0.70
     ethr =  7.03E-07
Average number of iterations:     2.250000
     Ef =   0.4639506464013216

     total energy              =    -819.77985226 Ry
     Harris-Foulkes estimate   =       0.00000000 Ry
     estimated scf accuracy    <       0.00018184 Ry

     iteration #  7     ecut=    40.00 Ry     beta=0.70
     ethr =  6.84E-08
Average number of iterations:     3.000000
     Ef =   0.4640316132222658

     total energy              =    -819.77987883 Ry
     Harris-Foulkes estimate   =       0.00000000 Ry
     estimated scf accuracy    <       0.00001576 Ry

     iteration #  8     ecut=    40.00 Ry     beta=0.70
     ethr =  5.93E-09
Average number of iterations:     3.000000
     Ef =   0.4640750648003482

     total energy              =    -819.77988215 Ry
     Harris-Foulkes estimate   =       0.00000000 Ry
     estimated scf accuracy    <       0.00000137 Ry

     iteration #  9     ecut=    40.00 Ry     beta=0.70
     ethr =  5.15E-10
Average number of iterations:     3.000000
     Ef =   0.4640926148691955

     total energy              =    -819.77988257 Ry
     Harris-Foulkes estimate   =       0.00000000 Ry
     estimated scf accuracy    <       0.00000018 Ry

     iteration # 10     ecut=    40.00 Ry     beta=0.70
     ethr =  6.78E-11
Average number of iterations:     3.000000
     Ef =   0.4640952499603159

     total energy              =    -819.77988259 Ry
     Harris-Foulkes estimate   =       0.00000000 Ry
     estimated scf accuracy    <       0.00000006 Ry

     iteration # 11     ecut=    40.00 Ry     beta=0.70
     ethr =  2.39E-11
Average number of iterations:     2.000000
     Ef =   0.4640922422654730

     total energy              =    -819.77988259 Ry
     Harris-Foulkes estimate   =       0.00000000 Ry
     estimated scf accuracy    <          4.5E-09 Ry

     iteration # 12     ecut=    40.00 Ry     beta=0.70
     ethr =  1.68E-12
Average number of iterations:     2.250000
     Ef =   0.4640916539627111

     total energy              =    -819.77988259 Ry
     Harris-Foulkes estimate   =       0.00000000 Ry
     estimated scf accuracy    <          1.1E-10 Ry

     iteration # 13     ecut=    40.00 Ry     beta=0.70
     ethr =  1.00E-13
Average number of iterations:     1.000000
     Ef =   0.4640915960080358

     total energy              =    -819.77988259 Ry
     Harris-Foulkes estimate   =       0.00000000 Ry
     estimated scf accuracy    <          2.3E-11 Ry

     iteration # 14     ecut=    40.00 Ry     beta=0.70
     ethr =  1.00E-13
Average number of iterations:     1.000000
     Ef =   0.4640915787131437
     last descf =  -0.1962894661E-04

     End of self-consistent calculation

     End of self-consistent calculation

          k = 0.0000 0.0000 0.0000 ( 37073 PWs)   bands (ev):

   -18.1975 -18.1975 -18.1975 -18.1673 -18.1673  -5.9342  -4.9975  -4.8230
    -4.8230  -4.8230  -4.8210  -4.8210  -4.1146  -3.8624  -3.8624  -3.8624
    -3.8581  -3.8581  -3.8581  -3.8579  -3.8579  -3.8579  -3.8579  -3.8579
    -3.6100  -3.5665  -3.5665  -3.5665  -1.9432  -1.7638  -1.7638  -1.7638
    -1.7607  -1.7607  -1.6824  -1.5974  -1.5974  -1.5974  -1.5946  -1.5946
    -1.5946  -1.5939  -1.5939  -1.5939  -1.5937  -1.5937  -0.9553  -0.9378
    -0.9378  -0.9378   0.4470   0.5643   0.5643   0.5643   0.5678   0.5678
     0.5678   0.5688   0.5688   0.5712   0.5712   0.5712   2.1719   2.1719
     2.1719   2.1816   2.1816   2.1816   2.1825   2.1825   2.1825   2.1825
     2.1855   2.1855   2.2670   2.2727   2.2727   2.2727   2.2810   2.2810
     2.2810   2.2829   2.2829   2.2839   2.2839   2.2839   2.4693   2.5273
     2.5273   2.5309   2.5309   2.5309   3.2047   3.2047   3.2047   3.2049
     3.2049   3.2049   4.1649   4.1649   4.1649   4.1665   4.1665   4.1665
     4.1686   4.1686   4.1686   4.1773   4.1773   4.1773   4.7316   4.7316
     4.7316   4.7340   4.7340   4.7340   4.7341   4.7375   4.7375   4.7408
     4.7408   4.7408   4.8624   4.8624   4.8624   4.8656   4.8656   4.8713
     4.8713   4.8713   6.0689   6.0689   6.0689   6.6460   6.6805   6.6805
     6.6805   6.6817   6.6817   7.0850   7.1103   7.1103   7.1181   7.1181
     7.1181   7.4324   7.4911   7.4911   7.4911   8.3766   8.4253   8.4253
     8.4253   8.4278   8.4278   8.4278   8.4501   8.4501   8.4501   8.4507

          k = 0.0000 0.0000-0.0244 ( 36906 PWs)   bands (ev):

   -18.1975 -18.1975 -18.1975 -18.1673 -18.1673  -5.6930  -5.6304  -4.7871
    -4.5767  -4.5767  -4.5750  -4.5737  -4.5733  -4.5733  -4.5728  -3.8959
    -3.7297  -3.7297  -3.7272  -3.7267  -3.7265  -3.7265  -3.7265  -3.5312
    -3.5121  -2.9097  -2.7889  -2.7845  -2.7845  -2.7837  -2.7837  -2.7837
    -2.7832  -1.7975  -1.6865  -1.6865  -1.6819  -1.6814  -1.6814  -1.6814
    -1.6813  -0.6345  -0.5193  -0.5193  -0.5159  -0.5159  -0.5157  -0.5155
    -0.5153  -0.3741  -0.3453  -0.3431  -0.3431  -0.3369  -0.3366  -0.3357
    -0.3357   0.2859   0.3059   1.6807   1.7542   1.7542   1.7563   1.7568
     1.7589   1.7612   1.7612   1.7969   1.7969   1.7989   1.8036   1.8037
     1.8037   1.8039   1.8057   2.6206   2.6206   2.6208   2.6248   2.6253
     2.6273   2.6273   2.6296   3.3223   3.3238   3.3266   3.3266   3.3282
     3.3310   3.3347   3.3347   3.4477   3.4477   3.4533   3.4533   3.4610
     3.4621   3.4621   3.4625   3.4645   3.4659   3.4659   3.4677   3.5655
     3.5796   3.5796   3.5824   3.5840   3.5857   3.5857   3.5860   4.6240
     4.6266   4.6266   4.6285   4.6313   4.6313   4.6323   4.6403   4.6950
     4.7184   4.7934   4.7970   4.7970   4.7970   4.7970   4.8004   4.8038
     4.8038   5.2510   5.2510   5.2614   5.2614   6.5770   6.5911   7.5049
     7.5097   7.9254   7.9432   7.9450   7.9450   7.9479   7.9647   7.9665
     7.9665   8.0107   8.0236   8.2750   8.3280   8.3280   8.3301   8.3322
     8.3339   8.3339   8.3713   8.4354   8.4401   8.4406   8.4406   8.4452

          k = 0.0000-0.0244-0.0244 ( 37020 PWs)   bands (ev):

   -18.1975 -18.1975 -18.1975 -18.1673 -18.1673  -5.4837  -5.3634  -5.3634
    -5.3623  -4.5408  -4.3513  -4.3467  -4.3467  -4.3455  -4.3455  -4.3455
    -4.3453  -3.5007  -3.3152  -3.3152  -3.3097  -3.3097  -3.3096  -3.3096
    -3.3096  -3.1178  -3.0310  -3.0310  -3.0291  -3.0289  -3.0287  -3.0283
    -3.0283  -2.2279  -2.1717  -2.1704  -2.1704  -1.2336  -1.1779  -1.1729
    -1.1729  -0.8135  -0.7499  -0.7499  -0.7478  -0.7430  -0.7425  -0.7420
    -0.7420  -0.0065   0.0871   0.0884   0.0884   0.0886   0.0886   0.0889
     0.0892   0.7039   0.7523   0.7523   0.7537   0.7574   0.7589   0.7589
     0.7620   1.7249   1.7249   1.7260   1.7308   2.5668   2.5838   2.5839
     2.5839   2.5869   2.5906   2.5906   2.5907   2.6737   2.6737   2.6770
     2.6777   2.6777   2.6799   2.6800   2.6800   3.2840   3.2871   3.2878
     3.2878   3.2900   3.2900   3.2911   3.2919   3.3324   3.3579   3.3651
     3.3651   3.6322   3.6322   3.6342   3.6358   3.8900   3.8900   3.8941
     3.8945   3.8952   3.8952   3.8978   3.8990   4.1919   4.2095   4.2103
     4.2103   4.2129   4.2134   4.2134   4.2217   4.4173   4.4184   4.4184
     4.4302   4.4706   4.4706   4.4715   4.4733   4.4734   4.4748   4.4824
     4.4824   5.7695   5.7708   5.7812   5.7812   7.1675   7.1675   7.1687
     7.1889   7.9055   7.9257   7.9279   7.9279   7.9337   7.9427   7.9504
     7.9504   8.2027   8.2229   8.2239   8.2239   8.2248   8.2295   8.2295
     8.2658   8.6093   8.6165   8.6181   8.6181   8.6189   8.6366   8.6366

          k =-0.0244-0.0244-0.0244 ( 37056 PWs)   bands (ev):

   -18.1975 -18.1975 -18.1975 -18.1673 -18.1673  -5.3169  -5.1049  -5.1049
    -5.1049  -5.1030  -5.1026  -5.1026  -5.1026  -3.6155  -3.1919  -3.1919
    -3.1919  -3.1838  -3.1838  -3.1838  -3.1837  -3.1837  -3.1834  -3.1834
    -3.1834  -3.1833  -3.1830  -3.1830  -3.1830  -3.1828  -3.1828  -3.1828
    -3.1827  -3.1827  -3.1827  -3.1827  -3.1827  -0.5915  -0.3471  -0.3471
    -0.3471  -0.3349  -0.3349  -0.3349  -0.3344  -0.3343  -0.3343  -0.3343
    -0.3343  -0.3343  -0.3342  -0.3342  -0.3342  -0.3335  -0.3335  -0.3334
    -0.3334  -0.3334  -0.3319  -0.3319  -0.3319   2.0597   2.1102   2.1102
     2.1102   2.1132   2.1186   2.1186   2.1186   2.4670   2.4882   2.4882
     2.4882   2.5017   2.5017   2.5017   2.5021   2.5021   2.5021   2.5025
     2.5025   2.5025   2.5027   2.5027   2.5027   2.5027   2.5027   2.5028
     2.5078   2.5078   2.5078   2.5083   2.5083   3.8482   3.8482   3.8482
     3.8501   3.8501   3.8501   3.8540   3.8540   3.8540   3.8547   3.8548
     3.8548   3.8548   3.8552   3.8552   3.8552   3.8552   3.8552   3.8553
     3.8575   3.8575   3.8612   3.8612   3.8612   5.2996   5.2996   5.2996
     5.3007   5.3007   5.3007   5.3012   5.3012   5.3016   5.3016   5.3016
     5.3026   5.3026   5.3245   5.3245   5.3245   7.3964   7.4862   7.4862
     7.4862   7.4878   7.4890   7.4890   7.4890   7.4893   7.4893   7.4894
     7.4894   7.4894   7.4898   7.4898   7.4898   7.4904   7.4904   7.4904
     7.5324   7.5324   7.5324   7.5393   7.5393   7.9110   7.9784   7.9823

     the Fermi energy is     6.3143 ev

!    total energy              =    -819.77988259 Ry
     Harris-Foulkes estimate   =       0.00000000 Ry
     estimated scf accuracy    <          5.4E-12 Ry

     The total energy is the sum of the following terms:

     one-electron contribution =     -48.97842271 Ry
     hartree contribution      =     151.40437476 Ry
     xc contribution           =    -328.89323656 Ry
     ewald contribution        =    -593.31242748 Ry
     band sum                  =       5.06622356 Ry
     deband                    =     -54.04464627 Ry
     smearing contrib. (-TS)   =      -0.00017059 Ry

     convergence has been achieved in  14 iterations
--------------------------------------------------------------------------------------------------------------------------------------------
name                                                                 count      total        min        max    average    self (%)
--------------------------------------------------------------------------------------------------------------------------------------------
Eigenproblem_elpa1|diag                                           :     61     5.9836     0.0262     1.1074     0.0981     100.00
Eigenproblem_elpa:transform_back                                  :     15     0.0269     0.0015     0.0028     0.0018     100.00
Eigenproblem_elpa:transform_to_standard                           :     15     1.5154     0.0067     1.4141     0.1010     100.00
qe|electrons                                                      :      1   107.9202   107.9202   107.9202   107.9202       0.00
qe|electrons|init                                                 :      1    15.8221    15.8221    15.8221    15.8221       7.25
qe|electrons|scf                                                  :      1    91.9741    91.9741    91.9741    91.9741       1.10
qe|init_run|hinit0                                                :      1     9.0264     9.0264     9.0264     9.0264       0.61
qe|init_run|hinit0|init_igk                                       :      1     0.0108     0.0108     0.0108     0.0108     100.00
qe|init_run|hinit0|init_us_1                                      :      1     1.2449     1.2449     1.2449     1.2449     100.00
qe|init_run|hinit0|struc_fact                                     :      1     7.7153     7.7153     7.7153     7.7153     100.00
qe|mix                                                            :     14     0.9148     0.0044     0.1333     0.0653     100.00
qe|run_pwscf                                                      :      1   137.8008   137.8008   137.8008   137.8008       4.40
qe|run_pwscf|electrons                                            :      1   107.9224   107.9224   107.9224   107.9224       0.00
qe|run_pwscf|init_run                                             :      1    12.7641    12.7641    12.7641    12.7641      29.28
qe|run_pwscf|setup                                                :      1     2.4203     2.4203     2.4203     2.4203     100.00
qe|run_pwscf|setup_sirius                                         :      1     8.6370     8.6370     8.6370     8.6370       1.50
qe|v_ha                                                           :     15     0.3483     0.0209     0.0404     0.0232     100.00
qe|v_xc                                                           :     15     1.6779     0.1000     0.2618     0.1119     100.00
qe|veff                                                           :     14     5.7417     0.3869     0.5416     0.4101      10.08
sddk::FFT3D::FFT3D                                                :      2     1.6405     0.2014     1.4391     0.8202     100.00
sddk::FFT3D::transform                                            :    972    26.0763     0.0197     0.6629     0.0268       1.00
sddk::FFT3D::transform_xy                                         :    972    22.6974     0.0174     0.3836     0.0234     100.00
sddk::FFT3D::transform_z                                          :    972     3.1171     0.0020     0.2146     0.0032       0.77
sddk::FFT3D::transform_z_serial                                   :    972     2.9023     0.0020     0.2070     0.0030     100.00
sddk::FFT3D::transform_z|comm                                     :     49     0.1907     0.0025     0.0246     0.0039     100.00
sddk::Gvec::find_gvec_shells                                      :      3     0.3969     0.0138     0.3252     0.1323     100.00
sddk::Gvec::init                                                  :      3     1.0035     0.0312     0.7972     0.3345      60.44
sddk::matrix_storage::matrix_storage                              :     89     0.6440     0.0000     0.2019     0.0072     100.00
sddk::matrix_storage::remap_backward                              :     61     0.3887     0.0003     0.0945     0.0064     100.00
sddk::matrix_storage::remap_forward                               :     75     0.7598     0.0004     0.3798     0.0101     100.00
sddk::remap_gvec_to_shells|init                                   :      1     0.1367     0.1367     0.1367     0.1367     100.00
sddk::wave_functions::inner                                       :    168     3.3448     0.0010     0.0682     0.0199     100.00
sddk::wave_functions::orthogonalize                               :     46     6.5221     0.0191     0.6484     0.1418       1.66
sddk::wave_functions::orthogonalize|potrf                         :     46     0.3697     0.0001     0.2638     0.0080     100.00
sddk::wave_functions::orthogonalize|trtri                         :     46     0.2218     0.0001     0.1889     0.0048     100.00
sddk::wave_functions::transform                                   :    248     7.7070     0.0013     0.1732     0.0311      94.00
sddk::wave_functions::transform|init                              :    248     0.4625     0.0000     0.1282     0.0019     100.00
sirius::Atom_type::init                                           :      2     0.1142     0.0525     0.0618     0.0571     100.00
sirius::Augmentation_operator::generate_pw_coeffs                 :      2     3.2383     1.4726     1.7657     1.6192     100.00
sirius::Band::apply_h_o                                           :     61    48.5581     0.1690     4.2965     0.7960       0.26
sirius::Band::diag_pseudo_potential                               :     14    64.3012     1.9771     9.4369     4.5929       0.04
sirius::Band::diag_pseudo_potential_davidson                      :     14    64.1885     1.9695     9.4294     4.5849       0.01
sirius::Band::diag_pseudo_potential_davidson|evp                  :     60     5.0072     0.0273     0.2014     0.0835       0.11
sirius::Band::diag_pseudo_potential_davidson|iter                 :     14    61.9358     1.8134     9.2727     4.4240       0.34
sirius::Band::diag_pseudo_potential_davidson|update_phi           :     14     0.8364     0.0299     0.0878     0.0597       0.05
sirius::Band::diag_pseudo_potential_davidson|wf                   :     14     0.0453     0.0001     0.0442     0.0032      99.51
sirius::Band::get_h_diag                                          :     14     1.0950     0.0777     0.0791     0.0782     100.00
sirius::Band::get_o_diag                                          :     14     1.0995     0.0773     0.0892     0.0785     100.00
sirius::Band::initialize_subspace                                 :      1    10.1887    10.1887    10.1887    10.1887      19.67
sirius::Band::initialize_subspace|kp                              :      1     7.8579     7.8579     7.8579     7.8579       1.46
sirius::Band::initialize_subspace|kp|wf                           :      1     0.1473     0.1473     0.1473     0.1473     100.00
sirius::Band::residuals                                           :     60     3.1723     0.0000     0.2602     0.0529       0.38
sirius::Band::residuals_aux                                       :     49     0.8854     0.0003     0.0866     0.0181     100.00
sirius::Band::set_subspace_mtrx                                   :     76     2.0575     0.0053     0.0683     0.0271       0.72
sirius::Band::solve_for_kset                                      :     14    72.6042     2.0543    10.7017     5.1860       9.75
sirius::Beta_projectors::Beta_projectors                          :      1     0.0487     0.0487     0.0487     0.0487      18.62
sirius::Beta_projectors::generate_pw_coefs_t                      :      1     0.0397     0.0397     0.0397     0.0397     100.00
sirius::Beta_projectors_base::generate                            :     75     7.7149     0.0914     0.8204     0.1029     100.00
sirius::Beta_projectors_base::inner                               :     75     8.1212     0.0114     1.1045     0.1083     100.00
sirius::DFT_ground_state::ewald_energy                            :      1     0.0770     0.0770     0.0770     0.0770     100.00
sirius::Density::add_k_point_contribution_dm                      :     14     3.1137     0.2178     0.2621     0.2224       0.75
sirius::Density::add_k_point_contribution_rg                      :     14     3.5323     0.2471     0.2881     0.2523       9.30
sirius::Density::augment                                          :     14     2.7265     0.1781     0.3056     0.1948       0.26
sirius::Density::generate_pseudo_core_charge_density              :      1     0.8143     0.8143     0.8143     0.8143       0.05
sirius::Density::generate_rho_aug                                 :     14     2.7194     0.1781     0.2996     0.1942       0.30
sirius::Density::generate_rho_aug|gemm                            :     28     0.5339     0.0053     0.1422     0.0191     100.00
sirius::Density::generate_rho_aug|phase_fac                       :     28     0.7471     0.0009     0.1075     0.0267     100.00
sirius::Density::generate_rho_aug|sum                             :     28     1.4304     0.0501     0.0604     0.0511     100.00
sirius::Density::generate_valence                                 :     14    10.4982     0.7028     1.0373     0.7499       4.94
sirius::Density::initial_density                                  :      1     0.6532     0.6532     0.6532     0.6532      12.07
sirius::K_point::generate_gkvec                                   :      1     0.0319     0.0319     0.0319     0.0319       2.14
sirius::K_point::initialize                                       :      1     0.1856     0.1856     0.1856     0.1856       5.65
sirius::K_point_set::add_kpoint                                   :      4     0.0230     0.0000     0.0229     0.0057      99.92
sirius::K_point_set::add_kpoints                                  :      1     0.0230     0.0230     0.0230     0.0230       0.19
sirius::Local_operator::apply_h                                   :     61    21.0826     0.0492     1.7143     0.3456       7.36
sirius::Local_operator::prepare                                   :     30     1.6541     0.0058     0.3267     0.0551      29.93
sirius::Non_local_operator::apply                                 :    122    14.6046     0.0062     0.3962     0.1197     100.00
sirius::Periodic_function::inner                                  :     42     0.1595     0.0032     0.0050     0.0038      69.80
sirius::Potential::Potential                                      :      1     0.9032     0.9032     0.9032     0.9032      48.93
sirius::Potential::generate_D_operator_matrix                     :     15     2.2205     0.0858     0.9827     0.1480     100.00
sirius::Potential::generate_local_potential                       :      1     0.4613     0.4613     0.4613     0.4613       0.06
sirius::Radial_integrals|aug                                      :      1     0.4940     0.4940     0.4940     0.4940     100.00
sirius::Radial_integrals|beta                                     :      2     0.4617     0.1545     0.3073     0.2309     100.00
sirius::Radial_integrals|rho_core_pseudo                          :      1     0.0220     0.0220     0.0220     0.0220     100.00
sirius::Radial_integrals|rho_pseudo                               :      1     0.0181     0.0181     0.0181     0.0181     100.00
sirius::Radial_integrals|vloc                                     :      1     0.2074     0.2074     0.2074     0.2074     100.00
sirius::Simulation_context::initialize                            :      1     8.2990     8.2990     8.2990     8.2990       0.33
sirius::Simulation_context_base::initialize                       :      1     5.0334     5.0334     5.0334     5.0334      18.36
sirius::Simulation_context_base::make_periodic_function           :      3     0.4100     0.1019     0.1976     0.1367     100.00
sirius::Smooth_periodic_function::fft_transform                   :     63     4.1328     0.0323     0.6815     0.0656      11.32
sirius::Smooth_periodic_function::gather_f_pw                     :     46     0.8942     0.0034     0.2085     0.0194     100.00
sirius::Unit_cell::find_nearest_neighbours                        :      1     0.2580     0.2580     0.2580     0.2580     100.00
sirius::Unit_cell::initialize                                     :      1     0.4038     0.4038     0.4038     0.4038       7.83
sirius_api::sirius_get_pw_coeffs                                  :     17     0.7080     0.0223     0.2668     0.0416      41.61
sirius_api::sirius_set_pw_coeffs                                  :     31     2.7285     0.0702     0.2075     0.0880      35.89
--------------------------------------------------------------------------------------------------------------------------------------------
+global_timer (  137.9327s, 0.10 % of self, 100.00 % of total)
|--qe|run_pwscf (  137.8008s, 99.90 %) 
qe|electrons (  107.9202s, 0.00 % of self, 78.24 % of total)
|--qe|electrons|scf (   91.9741s, 85.22 %) 
|--qe|electrons|init (   15.8221s, 14.66 %) 
|--sirius_api::sirius_set_pw_coeffs (    0.1239s, 0.11 %) 
qe|electrons|init (   15.8221s, 7.25 % of self, 11.47 % of total)
|--sirius::Band::initialize_subspace (   10.1887s, 64.40 %) 
|--sirius::Potential::generate_D_operator_matrix (    0.9827s, 6.21 %) 
|--sirius::Potential::Potential (    0.9032s, 5.71 %) 
|--sirius::Density::generate_pseudo_core_charge_density (    0.8143s, 5.15 %) 
|--sirius::Density::initial_density (    0.6532s, 4.13 %) 
|--sirius_api::sirius_set_pw_coeffs (    0.4034s, 2.55 %) 
|--sirius_api::sirius_get_pw_coeffs (    0.3507s, 2.22 %) 
|--qe|v_xc (    0.2618s, 1.65 %) 
|--sirius::DFT_ground_state::ewald_energy (    0.0770s, 0.49 %) 
|--qe|v_ha (    0.0404s, 0.26 %) 
|--sirius::Band::Band (    0.0000s, 0.00 %) 
qe|electrons|scf (   91.9741s, 1.10 % of self, 66.68 % of total)
|--sirius::Band::solve_for_kset (   72.6042s, 78.94 %) 
|--sirius::Density::generate_valence (   10.4982s, 11.41 %) 
|--qe|veff (    5.7417s, 6.24 %) 
|--qe|mix (    0.9148s, 0.99 %) 
|--sirius::Smooth_periodic_function::fft_transform (    0.7344s, 0.80 %) 
|--sirius_api::sirius_get_pw_coeffs (    0.3573s, 0.39 %) 
|--sirius::Periodic_function::inner (    0.1113s, 0.12 %) 
qe|init_run|hinit0 (    9.0264s, 0.61 % of self, 6.54 % of total)
|--qe|init_run|hinit0|struc_fact (    7.7153s, 85.47 %) 
|--qe|init_run|hinit0|init_us_1 (    1.2449s, 13.79 %) 
|--qe|init_run|hinit0|init_igk (    0.0108s, 0.12 %) 
|--qe|init_run|hinit0|init_vloc (    0.0000s, 0.00 %) 
|--qe|init_run|hinit0|setlocal (    0.0000s, 0.00 %) 
|--qe|init_run|hinit0|init_at_1 (    0.0000s, 0.00 %) 
|--qe|init_run|hinit0|set_rhoc (    0.0000s, 0.00 %) 
qe|run_pwscf (  137.8008s, 4.40 % of self, 99.90 % of total)
|--qe|run_pwscf|electrons (  107.9224s, 78.32 %) 
|--qe|run_pwscf|init_run (   12.7641s, 9.26 %) 
|--qe|run_pwscf|setup_sirius (    8.6370s, 6.27 %) 
|--qe|run_pwscf|setup (    2.4203s, 1.76 %) 
|--qe|run_pwscf|punch (    0.0001s, 0.00 %) 
|--qe|run_pwscf|forces (    0.0000s, 0.00 %) 
|--qe|run_pwscf|ions (    0.0000s, 0.00 %) 
|--qe|run_pwscf|stress (    0.0000s, 0.00 %) 
qe|run_pwscf|electrons (  107.9224s, 0.00 % of self, 78.24 % of total)
|--qe|electrons (  107.9202s, 100.00 %) 
qe|run_pwscf|init_run (   12.7641s, 29.28 % of self, 9.25 % of total)
|--qe|init_run|hinit0 (    9.0264s, 70.72 %) 
|--qe|init_run|potinit (    0.0000s, 0.00 %) 
|--qe|init_run|newd (    0.0000s, 0.00 %) 
qe|run_pwscf|setup_sirius (    8.6370s, 1.50 % of self, 6.26 % of total)
|--sirius::Simulation_context::initialize (    8.2990s, 96.09 %) 
|--sirius::K_point::initialize (    0.1856s, 2.15 %) 
|--sirius::K_point_set::add_kpoints (    0.0230s, 0.27 %) 
|--sirius::K_point_set::K_point_set (    0.0000s, 0.00 %) 
qe|veff (    5.7417s, 10.08 % of self, 4.16 % of total)
|--sirius_api::sirius_set_pw_coeffs (    2.2012s, 38.34 %) 
|--qe|v_xc (    1.4161s, 24.66 %) 
|--sirius::Potential::generate_D_operator_matrix (    1.2379s, 21.56 %) 
|--qe|v_ha (    0.3079s, 5.36 %) 
sddk::FFT3D::transform (   26.0763s, 1.00 % of self, 18.91 % of total)
|--sddk::FFT3D::transform_xy (   22.6974s, 87.04 %) 
|--sddk::FFT3D::transform_z (    3.1171s, 11.95 %) 
sddk::FFT3D::transform_z (    3.1171s, 0.77 % of self, 2.26 % of total)
|--sddk::FFT3D::transform_z_serial (    2.9023s, 93.11 %) 
|--sddk::FFT3D::transform_z|comm (    0.1907s, 6.12 %) 
sddk::wave_functions::orthogonalize (    6.5221s, 1.66 % of self, 4.73 % of total)
|--sddk::wave_functions::transform (    4.5201s, 69.30 %) 
|--sddk::wave_functions::inner (    1.3021s, 19.96 %) 
|--sddk::wave_functions::orthogonalize|potrf (    0.3697s, 5.67 %) 
|--sddk::wave_functions::orthogonalize|trtri (    0.2218s, 3.40 %) 
sddk::wave_functions::transform (    7.7070s, 94.00 % of self, 5.59 % of total)
|--sddk::wave_functions::transform|init (    0.4625s, 6.00 %) 
sirius::Band::apply_h_o (   48.5581s, 0.26 % of self, 35.20 % of total)
|--sirius::Local_operator::apply_h (   21.0826s, 43.42 %) 
|--sirius::Non_local_operator::apply (   14.6046s, 30.08 %) 
|--sirius::Beta_projectors_base::generate (    6.4081s, 13.20 %) 
|--sirius::Beta_projectors_base::inner (    6.3376s, 13.05 %) 
sirius::Band::diag_pseudo_potential (   64.3012s, 0.04 % of self, 46.62 % of total)
|--sirius::Band::diag_pseudo_potential_davidson (   64.1885s, 99.82 %) 
|--sirius::Local_operator::prepare (    0.0860s, 0.13 %) 
|--sddk::FFT3D::prepare (    0.0008s, 0.00 %) 
|--sirius::Non_local_operator::Non_local_operator (    0.0003s, 0.00 %) 
sirius::Band::diag_pseudo_potential_davidson (   64.1885s, 0.01 % of self, 46.54 % of total)
|--sirius::Band::diag_pseudo_potential_davidson|iter (   61.9358s, 96.49 %) 
|--sirius::Band::get_o_diag (    1.0995s, 1.71 %) 
|--sirius::Band::get_h_diag (    1.0950s, 1.71 %) 
|--sirius::Band::diag_pseudo_potential_davidson|wf (    0.0453s, 0.07 %) 
|--sirius::Band::diag_pseudo_potential_davidson|alloc (    0.0078s, 0.01 %) 
|--sirius::Beta_projectors_base::dismiss (    0.0000s, 0.00 %) 
sirius::Band::diag_pseudo_potential_davidson|evp (    5.0072s, 0.11 % of self, 3.63 % of total)
|--Eigenproblem_elpa1|diag (    4.8762s, 97.38 %) 
|--Eigenproblem_elpa:transform_to_standard (    0.1014s, 2.02 %) 
|--Eigenproblem_elpa:transform_back (    0.0241s, 0.48 %) 
sirius::Band::diag_pseudo_potential_davidson|iter (   61.9358s, 0.34 % of self, 44.90 % of total)
|--sirius::Band::apply_h_o (   44.2615s, 71.46 %) 
|--sddk::wave_functions::orthogonalize (    6.5221s, 10.53 %) 
|--sirius::Band::diag_pseudo_potential_davidson|evp (    5.0072s, 8.08 %) 
|--sirius::Band::residuals (    3.1723s, 5.12 %) 
|--sirius::Band::set_subspace_mtrx (    1.9229s, 3.10 %) 
|--sirius::Band::diag_pseudo_potential_davidson|update_phi (    0.8364s, 1.35 %) 
sirius::Band::initialize_subspace (   10.1887s, 19.67 % of self, 7.39 % of total)
|--sirius::Band::initialize_subspace|kp (    7.8579s, 77.12 %) 
|--sirius::Local_operator::prepare (    0.3267s, 3.21 %) 
sirius::Band::initialize_subspace|kp (    7.8579s, 1.46 % of self, 5.70 % of total)
|--sirius::Band::apply_h_o (    4.2965s, 54.68 %) 
|--Eigenproblem_elpa:transform_to_standard (    1.4141s, 18.00 %) 
|--Eigenproblem_elpa1|diag (    1.1074s, 14.09 %) 
|--sddk::matrix_storage::matrix_storage (    0.5492s, 6.99 %) 
|--sirius::Band::initialize_subspace|kp|wf (    0.1473s, 1.88 %) 
|--sirius::Band::set_subspace_mtrx (    0.1346s, 1.71 %) 
|--sddk::wave_functions::transform (    0.0759s, 0.97 %) 
|--sirius::Local_operator::prepare (    0.0151s, 0.19 %) 
|--Eigenproblem_elpa:transform_back (    0.0028s, 0.04 %) 
|--sddk::FFT3D::prepare (    0.0001s, 0.00 %) 
|--sirius::Non_local_operator::Non_local_operator (    0.0000s, 0.00 %) 
|--sirius::Beta_projectors_base::prepare (    0.0000s, 0.00 %) 
|--sirius::Beta_projectors_base::dismiss (    0.0000s, 0.00 %) 
sirius::Band::residuals (    3.1723s, 0.38 % of self, 2.30 % of total)
|--sddk::wave_functions::transform (    2.2750s, 71.71 %) 
|--sirius::Band::residuals_aux (    0.8854s, 27.91 %) 
sirius::Band::set_subspace_mtrx (    2.0575s, 0.72 % of self, 1.49 % of total)
|--sddk::wave_functions::inner (    2.0427s, 99.28 %) 
sirius::Band::solve_for_kset (   72.6042s, 9.75 % of self, 52.64 % of total)
|--sirius::Band::diag_pseudo_potential (   64.3012s, 88.56 %) 
|--sirius::Local_operator::prepare (    1.2263s, 1.69 %) 
|--sirius::K_point_set::sync_band_energies (    0.0008s, 0.00 %) 
sirius::Density::add_k_point_contribution_dm (    3.1137s, 0.75 % of self, 2.26 % of total)
|--sirius::Beta_projectors_base::inner (    1.7836s, 57.28 %) 
|--sirius::Beta_projectors_base::generate (    1.3067s, 41.97 %) 
|--sirius::Beta_projectors_base::dismiss (    0.0001s, 0.00 %) 
|--sirius::Beta_projectors_base::prepare (    0.0000s, 0.00 %) 
sirius::Density::add_k_point_contribution_rg (    3.5323s, 9.30 % of self, 2.56 % of total)
|--sddk::FFT3D::transform (    3.2028s, 90.67 %) 
|--sddk::FFT3D::prepare (    0.0009s, 0.03 %) 
sirius::Density::augment (    2.7265s, 0.26 % of self, 1.98 % of total)
|--sirius::Density::generate_rho_aug (    2.7194s, 99.74 %) 
sirius::Density::generate_rho_aug (    2.7194s, 0.30 % of self, 1.97 % of total)
|--sirius::Density::generate_rho_aug|sum (    1.4304s, 52.60 %) 
|--sirius::Density::generate_rho_aug|phase_fac (    0.7471s, 27.47 %) 
|--sirius::Density::generate_rho_aug|gemm (    0.5339s, 19.63 %) 
sirius::Density::generate_valence (   10.4982s, 4.94 % of self, 7.61 % of total)
|--sirius::Density::add_k_point_contribution_rg (    3.5323s, 33.65 %) 
|--sirius::Density::add_k_point_contribution_dm (    3.1137s, 29.66 %) 
|--sirius::Density::augment (    2.7265s, 25.97 %) 
|--sirius::Smooth_periodic_function::fft_transform (    0.4573s, 4.36 %) 
|--sddk::matrix_storage::remap_forward (    0.0816s, 0.78 %) 
|--sirius::Smooth_periodic_function::gather_f_pw (    0.0671s, 0.64 %) 
|--sddk::FFT3D::prepare (    0.0015s, 0.01 %) 
sirius::Local_operator::apply_h (   21.0826s, 7.36 % of self, 15.28 % of total)
|--sddk::FFT3D::transform (   18.4647s, 87.58 %) 
|--sddk::matrix_storage::remap_forward (    0.6783s, 3.22 %) 
|--sddk::matrix_storage::remap_backward (    0.3887s, 1.84 %) 
sirius::Local_operator::prepare (    1.6541s, 29.93 % of self, 1.20 % of total)
|--sddk::FFT3D::transform (    0.7436s, 44.96 %) 
|--sirius::Smooth_periodic_function::gather_f_pw (    0.4137s, 25.01 %) 
|--sddk::FFT3D::prepare (    0.0016s, 0.10 %) 
sirius::Simulation_context::initialize (    8.2990s, 0.33 % of self, 6.02 % of total)
|--sirius::Simulation_context_base::initialize (    5.0334s, 60.65 %) 
|--sirius::Augmentation_operator::generate_pw_coeffs (    3.2383s, 39.02 %) 
sirius::Simulation_context_base::initialize (    5.0334s, 18.36 % of self, 3.65 % of total)
|--sddk::FFT3D::FFT3D (    1.6405s, 32.59 %) 
|--sddk::Gvec::init (    0.9723s, 19.32 %) 
|--sirius::Radial_integrals|aug (    0.4940s, 9.81 %) 
|--sirius::Radial_integrals|beta (    0.4617s, 9.17 %) 
|--sirius::Unit_cell::initialize (    0.4038s, 8.02 %) 
|--sddk::remap_gvec_to_shells|init (    0.1367s, 2.72 %) 
|--sddk::FFT3D::prepare (    0.0003s, 0.01 %) 
sirius::Smooth_periodic_function::fft_transform (    4.1328s, 11.32 % of self, 3.00 % of total)
|--sddk::FFT3D::transform (    3.6652s, 88.68 %) 
sirius_api::sirius_set_pw_coeffs (    2.7285s, 35.89 % of self, 1.98 % of total)
|--sirius::Smooth_periodic_function::fft_transform (    1.7493s, 64.11 %) 

     init_run     :      9.82s CPU     12.76s WALL (       1 calls)

     Called by init_run:

     Called by electrons:
     v_of_rho     :      1.84s CPU      2.04s WALL (      15 calls)
     mix_rho      :      0.70s CPU      0.87s WALL (      14 calls)
     sym_rho      :      0.41s CPU      0.48s WALL (      14 calls)

     Called by c_bands:

     Called by sum_band:

     Called by *egterg:

     Called by h_psi:

     General routines
     fft          :      1.38s CPU      1.95s WALL (      88 calls)

     Parallel routines
     fft_scatter  :      0.64s CPU      0.65s WALL (      88 calls)

     PWSCF        :  1m51.64s CPU     2m20.03s WALL


   This run was terminated on:   9:36: 5   2Oct2017            

=------------------------------------------------------------------------------=
   JOB DONE.
=------------------------------------------------------------------------------=
Note: The following floating-point exceptions are signalling: IEEE_INVALID_FLAG IEEE_UNDERFLOW_FLAG IEEE_DENORMAL
Note: The following floating-point exceptions are signalling: IEEE_INVALID_FLAG IEEE_DIVIDE_BY_ZERO IEEE_UNDERFLOW_FLAG IEEE_DENORMAL
Note: The following floating-point exceptions are signalling: IEEE_INVALID_FLAG IEEE_DIVIDE_BY_ZERO IEEE_UNDERFLOW_FLAG IEEE_DENORMAL
Note: The following floating-point exceptions are signalling: IEEE_INVALID_FLAG IEEE_DIVIDE_BY_ZERO IEEE_UNDERFLOW_FLAG IEEE_DENORMAL
Note: The following floating-point exceptions are signalling: IEEE_INVALID_FLAG IEEE_DIVIDE_BY_ZERO IEEE_UNDERFLOW_FLAG IEEE_DENORMAL
Note: The following floating-point exceptions are signalling: IEEE_INVALID_FLAG IEEE_DIVIDE_BY_ZERO IEEE_UNDERFLOW_FLAG IEEE_DENORMAL
Note: The following floating-point exceptions are signalling: IEEE_INVALID_FLAG IEEE_DIVIDE_BY_ZERO IEEE_UNDERFLOW_FLAG IEEE_DENORMAL
Note: The following floating-point exceptions are signalling: IEEE_INVALID_FLAG IEEE_DIVIDE_BY_ZERO IEEE_UNDERFLOW_FLAG IEEE_DENORMAL
Note: The following floating-point exceptions are signalling: IEEE_INVALID_FLAG IEEE_DIVIDE_BY_ZERO IEEE_UNDERFLOW_FLAG IEEE_DENORMAL
Note: The following floating-point exceptions are signalling: IEEE_INVALID_FLAG IEEE_DIVIDE_BY_ZERO IEEE_UNDERFLOW_FLAG IEEE_DENORMAL
Note: The following floating-point exceptions are signalling: IEEE_INVALID_FLAG IEEE_DIVIDE_BY_ZERO IEEE_UNDERFLOW_FLAG IEEE_DENORMAL
Note: The following floating-point exceptions are signalling: IEEE_INVALID_FLAG IEEE_DIVIDE_BY_ZERO IEEE_UNDERFLOW_FLAG IEEE_DENORMAL
Note: The following floating-point exceptions are signalling: IEEE_INVALID_FLAG IEEE_DIVIDE_BY_ZERO IEEE_UNDERFLOW_FLAG IEEE_DENORMAL
Note: The following floating-point exceptions are signalling: IEEE_INVALID_FLAG IEEE_DIVIDE_BY_ZERO IEEE_UNDERFLOW_FLAG IEEE_DENORMAL
Note: The following floating-point exceptions are signalling: IEEE_INVALID_FLAG IEEE_DIVIDE_BY_ZERO IEEE_UNDERFLOW_FLAG IEEE_DENORMAL
Note: The following floating-point exceptions are signalling: IEEE_INVALID_FLAG IEEE_DIVIDE_BY_ZERO IEEE_UNDERFLOW_FLAG IEEE_DENORMAL
Note: The following floating-point exceptions are signalling: IEEE_INVALID_FLAG IEEE_DIVIDE_BY_ZERO IEEE_UNDERFLOW_FLAG IEEE_DENORMAL
Note: The following floating-point exceptions are signalling: IEEE_INVALID_FLAG IEEE_DIVIDE_BY_ZERO IEEE_UNDERFLOW_FLAG IEEE_DENORMAL
Note: The following floating-point exceptions are signalling: IEEE_INVALID_FLAG IEEE_DIVIDE_BY_ZERO IEEE_UNDERFLOW_FLAG IEEE_DENORMAL
Note: The following floating-point exceptions are signalling: IEEE_INVALID_FLAG IEEE_UNDERFLOW_FLAG IEEE_DENORMAL
Note: The following floating-point exceptions are signalling: IEEE_INVALID_FLAG IEEE_DIVIDE_BY_ZERO IEEE_UNDERFLOW_FLAG IEEE_DENORMAL
Note: The following floating-point exceptions are signalling: IEEE_INVALID_FLAG IEEE_DIVIDE_BY_ZERO IEEE_UNDERFLOW_FLAG IEEE_DENORMAL
Note: The following floating-point exceptions are signalling: IEEE_INVALID_FLAG IEEE_DIVIDE_BY_ZERO IEEE_UNDERFLOW_FLAG IEEE_DENORMAL
Note: The following floating-point exceptions are signalling: IEEE_INVALID_FLAG IEEE_DIVIDE_BY_ZERO IEEE_UNDERFLOW_FLAG IEEE_DENORMAL
Note: The following floating-point exceptions are signalling: IEEE_INVALID_FLAG IEEE_DIVIDE_BY_ZERO IEEE_UNDERFLOW_FLAG IEEE_DENORMAL
Note: The following floating-point exceptions are signalling: IEEE_INVALID_FLAG IEEE_DIVIDE_BY_ZERO IEEE_UNDERFLOW_FLAG IEEE_DENORMAL
Note: The following floating-point exceptions are signalling: IEEE_INVALID_FLAG IEEE_DIVIDE_BY_ZERO IEEE_UNDERFLOW_FLAG IEEE_DENORMAL
Note: The following floating-point exceptions are signalling: IEEE_INVALID_FLAG IEEE_DIVIDE_BY_ZERO IEEE_UNDERFLOW_FLAG IEEE_DENORMAL
Note: The following floating-point exceptions are signalling: IEEE_INVALID_FLAG IEEE_DIVIDE_BY_ZERO IEEE_UNDERFLOW_FLAG IEEE_DENORMAL
Note: The following floating-point exceptions are signalling: IEEE_INVALID_FLAG IEEE_DIVIDE_BY_ZERO IEEE_UNDERFLOW_FLAG IEEE_DENORMAL
Note: The following floating-point exceptions are signalling: IEEE_INVALID_FLAG IEEE_DIVIDE_BY_ZERO IEEE_UNDERFLOW_FLAG IEEE_DENORMAL
Note: The following floating-point exceptions are signalling: IEEE_INVALID_FLAG IEEE_DIVIDE_BY_ZERO IEEE_UNDERFLOW_FLAG IEEE_DENORMAL
Note: The following floating-point exceptions are signalling: IEEE_INVALID_FLAG IEEE_DIVIDE_BY_ZERO IEEE_UNDERFLOW_FLAG IEEE_DENORMAL
Note: The following floating-point exceptions are signalling: IEEE_INVALID_FLAG IEEE_DIVIDE_BY_ZERO IEEE_UNDERFLOW_FLAG IEEE_DENORMAL
Note: The following floating-point exceptions are signalling: IEEE_INVALID_FLAG IEEE_UNDERFLOW_FLAG IEEE_DENORMAL
Note: The following floating-point exceptions are signalling: IEEE_INVALID_FLAG IEEE_UNDERFLOW_FLAG IEEE_DENORMAL
Note: The following floating-point exceptions are signalling: IEEE_INVALID_FLAG IEEE_UNDERFLOW_FLAG IEEE_DENORMAL
Note: The following floating-point exceptions are signalling: IEEE_INVALID_FLAG IEEE_DIVIDE_BY_ZERO IEEE_UNDERFLOW_FLAG IEEE_DENORMAL
Note: The following floating-point exceptions are signalling: IEEE_INVALID_FLAG IEEE_DIVIDE_BY_ZERO IEEE_UNDERFLOW_FLAG IEEE_DENORMAL
Note: The following floating-point exceptions are signalling: IEEE_INVALID_FLAG IEEE_DIVIDE_BY_ZERO IEEE_UNDERFLOW_FLAG IEEE_DENORMAL
Note: The following floating-point exceptions are signalling: IEEE_INVALID_FLAG IEEE_DIVIDE_BY_ZERO IEEE_UNDERFLOW_FLAG IEEE_DENORMAL
Note: The following floating-point exceptions are signalling: IEEE_INVALID_FLAG IEEE_DIVIDE_BY_ZERO IEEE_UNDERFLOW_FLAG IEEE_DENORMAL
Note: The following floating-point exceptions are signalling: IEEE_INVALID_FLAG IEEE_DIVIDE_BY_ZERO IEEE_UNDERFLOW_FLAG IEEE_DENORMAL
Note: The following floating-point exceptions are signalling: IEEE_INVALID_FLAG IEEE_DIVIDE_BY_ZERO IEEE_UNDERFLOW_FLAG IEEE_DENORMAL
Note: The following floating-point exceptions are signalling: IEEE_INVALID_FLAG IEEE_DIVIDE_BY_ZERO IEEE_UNDERFLOW_FLAG IEEE_DENORMAL
Note: The following floating-point exceptions are signalling: IEEE_INVALID_FLAG IEEE_DIVIDE_BY_ZERO IEEE_UNDERFLOW_FLAG IEEE_DENORMAL
Note: The following floating-point exceptions are signalling: IEEE_INVALID_FLAG IEEE_DIVIDE_BY_ZERO IEEE_UNDERFLOW_FLAG IEEE_DENORMAL
Note: The following floating-point exceptions are signalling: IEEE_INVALID_FLAG IEEE_DIVIDE_BY_ZERO IEEE_UNDERFLOW_FLAG IEEE_DENORMAL
Note: The following floating-point exceptions are signalling: IEEE_INVALID_FLAG IEEE_UNDERFLOW_FLAG IEEE_DENORMAL
Note: The following floating-point exceptions are signalling: IEEE_INVALID_FLAG IEEE_UNDERFLOW_FLAG IEEE_DENORMAL
Note: The following floating-point exceptions are signalling: IEEE_INVALID_FLAG IEEE_UNDERFLOW_FLAG IEEE_DENORMAL
Note: The following floating-point exceptions are signalling: IEEE_INVALID_FLAG IEEE_UNDERFLOW_FLAG IEEE_DENORMAL
Note: The following floating-point exceptions are signalling: IEEE_INVALID_FLAG IEEE_UNDERFLOW_FLAG IEEE_DENORMAL
Note: The following floating-point exceptions are signalling: IEEE_INVALID_FLAG IEEE_UNDERFLOW_FLAG IEEE_DENORMAL
Note: The following floating-point exceptions are signalling: IEEE_INVALID_FLAG IEEE_UNDERFLOW_FLAG IEEE_DENORMAL
Note: The following floating-point exceptions are signalling: IEEE_INVALID_FLAG IEEE_UNDERFLOW_FLAG IEEE_DENORMAL
Note: The following floating-point exceptions are signalling: IEEE_INVALID_FLAG IEEE_UNDERFLOW_FLAG IEEE_DENORMAL
Note: The following floating-point exceptions are signalling: IEEE_INVALID_FLAG IEEE_UNDERFLOW_FLAG IEEE_DENORMAL
Note: The following floating-point exceptions are signalling: IEEE_INVALID_FLAG IEEE_UNDERFLOW_FLAG IEEE_DENORMAL
Note: The following floating-point exceptions are signalling: IEEE_INVALID_FLAG IEEE_UNDERFLOW_FLAG IEEE_DENORMAL
Note: The following floating-point exceptions are signalling: IEEE_INVALID_FLAG IEEE_DIVIDE_BY_ZERO IEEE_UNDERFLOW_FLAG IEEE_DENORMAL
Note: The following floating-point exceptions are signalling: IEEE_INVALID_FLAG IEEE_DIVIDE_BY_ZERO IEEE_UNDERFLOW_FLAG IEEE_DENORMAL
Note: The following floating-point exceptions are signalling: IEEE_INVALID_FLAG IEEE_DIVIDE_BY_ZERO IEEE_UNDERFLOW_FLAG IEEE_DENORMAL
Note: The following floating-point exceptions are signalling: IEEE_INVALID_FLAG IEEE_DIVIDE_BY_ZERO IEEE_UNDERFLOW_FLAG IEEE_DENORMAL
